<?xml version="1.0" encoding="UTF-8"?>

<!-- generated on 2023-09-08 16:34:03 by Eclipse SUMO sumo Version 1.18.0
<configuration xmlns:xsi="http://www.w3.org/2001/XMLSchema-instance" xsi:noNamespaceSchemaLocation="http://sumo.dlr.de/xsd/sumoConfiguration.xsd">

    <input>
        <net-file value="test.net.xml"/>
        <route-files value="test.rou.xml"/>
        <additional-files value="test.e2.xml,test.e3.xml"/>
    </input>

    <output>
        <save-state.rng value="true"/>
    </output>

    <time>
        <step-length value="1.0"/>
    </time>

    <processing>
        <time-to-teleport value="600"/>
    </processing>

    <report>
        <xml-validation value="never"/>
        <no-step-log value="true"/>
    </report>

    <traci_server>
        <remote-port value="49360"/>
    </traci_server>

    <random_number>
        <seed value="0"/>
    </random_number>

    <gui_only>
        <gui-settings-file value="gui.cfg"/>
        <quit-on-end value="true"/>
        <delay value="0"/>
    </gui_only>

</configuration>
-->

<detector xmlns:xsi="http://www.w3.org/2001/XMLSchema-instance" xsi:noNamespaceSchemaLocation="http://sumo.dlr.de/xsd/det_e2_file.xsd">
   <interval begin="0.00" end="300.00" id="me2_0" sampledSeconds="262.29" nVehEntered="20" nVehLeft="18" nVehSeen="20" meanSpeed="11.57" meanTimeLoss="1.04" meanOccupancy="1.17" maxOccupancy="5.46" meanMaxJamLengthInVehicles="0.00" meanMaxJamLengthInMeters="0.00" maxJamLengthInVehicles="0" maxJamLengthInMeters="0.00" jamLengthInVehiclesSum="0" jamLengthInMetersSum="0.00" meanHaltingDuration="0.00" maxHaltingDuration="0.00" haltingDurationSum="0.00" meanIntervalHaltingDuration="0.00" maxIntervalHaltingDuration="0.00" intervalHaltingDurationSum="0.00" startedHalts="0.00" meanVehicleNumber="0.91" maxVehicleNumber="4" />
   <interval begin="0.00" end="300.00" id="me2_1" sampledSeconds="1036.78" nVehEntered="27" nVehLeft="23" nVehSeen="27" meanSpeed="6.33" meanTimeLoss="20.22" meanOccupancy="4.69" maxOccupancy="10.92" meanMaxJamLengthInVehicles="1.55" meanMaxJamLengthInMeters="10.43" maxJamLengthInVehicles="5" maxJamLengthInMeters="35.02" jamLengthInVehiclesSum="465" jamLengthInMetersSum="3130.24" meanHaltingDuration="43.27" maxHaltingDuration="72.00" haltingDurationSum="476.00" meanIntervalHaltingDuration="43.27" maxIntervalHaltingDuration="72.00" intervalHaltingDurationSum="476.00" startedHalts="11.00" meanVehicleNumber="3.49" maxVehicleNumber="8" />
   <interval begin="0.00" end="300.00" id="me2_2" sampledSeconds="345.43" nVehEntered="15" nVehLeft="14" nVehSeen="15" meanSpeed="5.64" meanTimeLoss="13.80" meanOccupancy="1.55" maxOccupancy="6.83" meanMaxJamLengthInVehicles="0.58" meanMaxJamLengthInMeters="3.44" maxJamLengthInVehicles="2" maxJamLengthInMeters="12.58" jamLengthInVehiclesSum="173" jamLengthInMetersSum="1032.69" meanHaltingDuration="35.60" maxHaltingDuration="67.00" haltingDurationSum="178.00" meanIntervalHaltingDuration="35.60" maxIntervalHaltingDuration="67.00" intervalHaltingDurationSum="178.00" startedHalts="5.00" meanVehicleNumber="1.18" maxVehicleNumber="5" />
   <interval begin="0.00" end="300.00" id="me2_3" sampledSeconds="520.67" nVehEntered="13" nVehLeft="10" nVehSeen="13" meanSpeed="6.35" meanTimeLoss="21.83" meanOccupancy="2.35" maxOccupancy="9.56" meanMaxJamLengthInVehicles="0.77" meanMaxJamLengthInMeters="4.96" maxJamLengthInVehicles="5" maxJamLengthInMeters="35.03" jamLengthInVehiclesSum="230" jamLengthInMetersSum="1489.29" meanHaltingDuration="26.55" maxHaltingDuration="60.00" haltingDurationSum="239.00" meanIntervalHaltingDuration="26.55" maxIntervalHaltingDuration="60.00" intervalHaltingDurationSum="239.00" startedHalts="9.00" meanVehicleNumber="1.76" maxVehicleNumber="7" />
   <interval begin="0.00" end="300.00" id="me2_4" sampledSeconds="318.05" nVehEntered="19" nVehLeft="18" nVehSeen="19" meanSpeed="12.50" meanTimeLoss="1.32" meanOccupancy="1.41" maxOccupancy="5.46" meanMaxJamLengthInVehicles="0.00" meanMaxJamLengthInMeters="0.00" maxJamLengthInVehicles="0" maxJamLengthInMeters="0.00" jamLengthInVehiclesSum="0" jamLengthInMetersSum="0.00" meanHaltingDuration="0.00" maxHaltingDuration="0.00" haltingDurationSum="0.00" meanIntervalHaltingDuration="0.00" maxIntervalHaltingDuration="0.00" intervalHaltingDurationSum="0.00" startedHalts="0.00" meanVehicleNumber="1.09" maxVehicleNumber="4" />
   <interval begin="0.00" end="300.00" id="me2_5" sampledSeconds="1182.58" nVehEntered="36" nVehLeft="28" nVehSeen="36" meanSpeed="6.98" meanTimeLoss="16.51" meanOccupancy="5.38" maxOccupancy="13.65" meanMaxJamLengthInVehicles="1.68" meanMaxJamLengthInMeters="11.24" maxJamLengthInVehicles="6" maxJamLengthInMeters="43.31" jamLengthInVehiclesSum="504" jamLengthInMetersSum="3373.29" meanHaltingDuration="34.60" maxHaltingDuration="78.00" haltingDurationSum="519.00" meanIntervalHaltingDuration="34.60" maxIntervalHaltingDuration="78.00" intervalHaltingDurationSum="519.00" startedHalts="15.00" meanVehicleNumber="4.00" maxVehicleNumber="10" />
   <interval begin="0.00" end="300.00" id="me2_6" sampledSeconds="570.74" nVehEntered="27" nVehLeft="23" nVehSeen="27" meanSpeed="4.97" meanTimeLoss="13.86" meanOccupancy="2.59" maxOccupancy="9.56" meanMaxJamLengthInVehicles="1.07" meanMaxJamLengthInMeters="6.73" maxJamLengthInVehicles="5" maxJamLengthInMeters="35.01" jamLengthInVehiclesSum="322" jamLengthInMetersSum="2017.88" meanHaltingDuration="33.20" maxHaltingDuration="75.00" haltingDurationSum="332.00" meanIntervalHaltingDuration="33.20" maxIntervalHaltingDuration="75.00" intervalHaltingDurationSum="332.00" startedHalts="10.00" meanVehicleNumber="1.94" maxVehicleNumber="7" />
   <interval begin="0.00" end="300.00" id="me2_7" sampledSeconds="713.65" nVehEntered="17" nVehLeft="10" nVehSeen="17" meanSpeed="6.69" meanTimeLoss="21.42" meanOccupancy="3.23" maxOccupancy="9.56" meanMaxJamLengthInVehicles="1.03" meanMaxJamLengthInMeters="6.86" maxJamLengthInVehicles="4" maxJamLengthInMeters="27.56" jamLengthInVehiclesSum="310" jamLengthInMetersSum="2057.55" meanHaltingDuration="35.44" maxHaltingDuration="68.00" haltingDurationSum="319.00" meanIntervalHaltingDuration="35.44" maxIntervalHaltingDuration="68.00" intervalHaltingDurationSum="319.00" startedHalts="9.00" meanVehicleNumber="2.41" maxVehicleNumber="7" />
   <interval begin="0.00" end="300.00" id="me2_8" sampledSeconds="320.66" nVehEntered="21" nVehLeft="19" nVehSeen="21" meanSpeed="12.62" meanTimeLoss="1.11" meanOccupancy="1.44" maxOccupancy="5.46" meanMaxJamLengthInVehicles="0.00" meanMaxJamLengthInMeters="0.00" maxJamLengthInVehicles="0" maxJamLengthInMeters="0.00" jamLengthInVehiclesSum="0" jamLengthInMetersSum="0.00" meanHaltingDuration="0.00" maxHaltingDuration="0.00" haltingDurationSum="0.00" meanIntervalHaltingDuration="0.00" maxIntervalHaltingDuration="0.00" intervalHaltingDurationSum="0.00" startedHalts="0.00" meanVehicleNumber="1.11" maxVehicleNumber="4" />
   <interval begin="0.00" end="300.00" id="me2_9" sampledSeconds="1023.79" nVehEntered="30" nVehLeft="27" nVehSeen="30" meanSpeed="6.24" meanTimeLoss="18.71" meanOccupancy="4.63" maxOccupancy="12.29" meanMaxJamLengthInVehicles="1.62" meanMaxJamLengthInMeters="10.80" maxJamLengthInVehicles="6" maxJamLengthInMeters="42.57" jamLengthInVehiclesSum="486" jamLengthInMetersSum="3240.66" meanHaltingDuration="45.18" maxHaltingDuration="77.00" haltingDurationSum="497.00" meanIntervalHaltingDuration="45.18" maxIntervalHaltingDuration="77.00" intervalHaltingDurationSum="497.00" startedHalts="11.00" meanVehicleNumber="3.46" maxVehicleNumber="9" />
   <interval begin="0.00" end="300.00" id="me2_10" sampledSeconds="314.43" nVehEntered="24" nVehLeft="23" nVehSeen="24" meanSpeed="8.06" meanTimeLoss="6.08" meanOccupancy="1.42" maxOccupancy="5.46" meanMaxJamLengthInVehicles="0.38" meanMaxJamLengthInMeters="2.19" maxJamLengthInVehicles="2" maxJamLengthInMeters="13.33" jamLengthInVehiclesSum="115" jamLengthInMetersSum="658.37" meanHaltingDuration="29.75" maxHaltingDuration="45.00" haltingDurationSum="119.00" meanIntervalHaltingDuration="29.75" maxIntervalHaltingDuration="45.00" intervalHaltingDurationSum="119.00" startedHalts="4.00" meanVehicleNumber="1.09" maxVehicleNumber="4" />
   <interval begin="0.00" end="300.00" id="me2_11" sampledSeconds="661.66" nVehEntered="14" nVehLeft="10" nVehSeen="14" meanSpeed="5.98" meanTimeLoss="26.29" meanOccupancy="2.98" maxOccupancy="9.56" meanMaxJamLengthInVehicles="0.99" meanMaxJamLengthInMeters="6.53" maxJamLengthInVehicles="6" maxJamLengthInMeters="42.59" jamLengthInVehiclesSum="296" jamLengthInMetersSum="1960.46" meanHaltingDuration="27.91" maxHaltingDuration="69.00" haltingDurationSum="307.00" meanIntervalHaltingDuration="27.91" maxIntervalHaltingDuration="69.00" intervalHaltingDurationSum="307.00" startedHalts="11.00" meanVehicleNumber="2.24" maxVehicleNumber="7" />
   <interval begin="0.00" end="300.00" id="me2_12" sampledSeconds="275.20" nVehEntered="18" nVehLeft="16" nVehSeen="18" meanSpeed="11.99" meanTimeLoss="1.65" meanOccupancy="1.22" maxOccupancy="4.09" meanMaxJamLengthInVehicles="0.00" meanMaxJamLengthInMeters="0.00" maxJamLengthInVehicles="0" maxJamLengthInMeters="0.00" jamLengthInVehiclesSum="0" jamLengthInMetersSum="0.00" meanHaltingDuration="0.00" maxHalti