<?xml version="1.0" encoding="UTF-8"?>

<!-- generated on 2023-09-08 16:34:03 by Eclipse SUMO sumo Version 1.18.0
<configuration xmlns:xsi="http://www.w3.org/2001/XMLSchema-instance" xsi:noNamespaceSchemaLocation="http://sumo.dlr.de/xsd/sumoConfiguration.xsd">

    <input>
        <net-file value="test.net.xml"/>
        <route-files value="test.rou.xml"/>
        <additional-files value="test.e2.xml,test.e3.xml"/>
    </input>

    <output>
        <save-state.rng value="true"/>
    </output>

    <time>
        <step-length value="1.0"/>
    </time>

    <processing>
        <time-to-teleport value="600"/>
    </processing>

    <report>
        <xml-validation value="never"/>
        <no-step-log value="true"/>
    </report>

    <traci_server>
        <remote-port value="49360"/>
    </traci_server>

    <random_number>
        <seed value="0"/>
    </random_number>

    <gui_only>
        <gui-settings-file value="gui.cfg"/>
        <quit-on-end value="true"/>
        <delay value="0"/>
    </gui_only>

</configuration>
-->

<detector xmlns:xsi="http://www.w3.org/2001/XMLSchema-instance" xsi:noNamespaceSchemaLocation="http://sumo.dlr.de/xsd/det_e2_file.xsd">
   <interval begin="0.00" end="300.00" id="me2_0" sampledSeconds="262.29" nVehEntered="20" nVehLeft="18" nVehSeen="20" meanSpeed="11.57" meanTimeLoss="1.04" meanOccupancy="1.17" maxOccupancy="5.46" meanMaxJamLengthInVehicles="0.00" meanMaxJamLengthInMeters="0.00" maxJamLengthInVehicles="0" maxJamLengthInMeters="0.00" jamLengthInVehiclesSum="0" jamLengthInMetersSum="0.00" meanHaltingDuration="0.00" maxHaltingDuration="0.00" haltingDurationSum="0.00" meanIntervalHaltingDuration="0.00" maxIntervalHaltingDuration="0.00" intervalHaltingDurationSum="0.00" startedHalts="0.00" meanVehicleNumber="0.91" maxVehicleNumber="4" />
   <interval begin="0.00" end="300.00" id="me2_1" sampledSeconds="1036.78" nVehEntered="27" nVehLeft="23" nVehSeen="27" meanSpeed="6.33" meanTimeLoss="20.22" meanOccupancy="4.69" maxOccupancy="10.92" meanMaxJamLengthInVehicles="1.55" meanMaxJamLengthInMeters="10.43" maxJamLengthInVehicles="5" maxJamLengthInMeters="35.02" jamLengthInVehiclesSum="465" jamLengthInMetersSum="3130.24" meanHaltingDuration="43.27" maxHaltingDuration="72.00" haltingDurationSum="476.00" meanIntervalHaltingDuration="43.27" maxIntervalHaltingDuration="72.00" intervalHaltingDurationSum="476.00" startedHalts="11.00" meanVehicleNumber="3.49" maxVehicleNumber="8" />
   <interval begin="0.00" end="300.00" id="me2_2" sampledSeconds="345.43" nVehEntered="15" nVehLeft="14" nVehSeen="15" meanSpeed="5.64" meanTimeLoss="13.80" meanOccupancy="1.55" maxOccupancy="6.83" meanMaxJamLengthInVehicles="0.58" meanMaxJamLengthInMeters="3.44" maxJamLengthInVehicles="2" maxJamLengthInMeters="12.58" jamLengthInVehiclesSum="173" jamLengthInMetersSum="1032.69" meanHaltingDuration="35.60" maxHaltingDuration="67.00" haltingDurationSum="178.00" meanIntervalHaltingDuration="35.60" maxIntervalHaltingDuration="67.00" intervalHaltingDurationSum="178.00" startedHalts="5.00" meanVehicleNumber="1.18" maxVehicleNumber="5" />
   <interval begin="0.00" end="300.00" id="me2_3" sampledSeconds="520.67" nVehEntered="13" nVehLeft="10" nVehSeen="13" meanSpeed="6.35" meanTimeLoss="21.83" meanOccupancy="2.35" maxOccupancy="9.56" meanMaxJamLengthInVehicles="0.77" meanMaxJamLengthInMeters="4.96" maxJamLengthInVehicles="5" maxJamLengthInMeters="35.03" jamLengthInVehiclesSum="230" jamLengthInMetersSum="1489.29" meanHaltingDuration="26.55" maxHaltingDuration="60.00" haltingDurationSum="239.00" meanIntervalHaltingDuration="26.55" maxIntervalHaltingDuration="60.00" intervalHaltingDurationSum="239.00" startedHalts="9.00" meanVehicleNumber="1.76" maxVehicleNumber="7" />
   <interval begin="0.00" end="300.00" id="me2_4" sampledSeconds="318.05" nVehEntered="19" nVehLeft="18" nVehSeen="19" meanSpeed="12.50" meanTimeLoss="1.32" meanOccupancy="1.41" maxOccupancy="5.46" meanMaxJamLengthInVehicles="0.00" meanMaxJamLengthInMeters="0.00" maxJamLengthInVehicles="0" maxJamLengthInMeters="0.00" jamLengthInVehiclesSum="0" jamLengthInMetersSum="0.00" meanHaltingDuration="0.00" maxHaltingDuration="0.00" haltingDurationSum="0.00" meanIntervalHaltingDuration="0.00" maxIntervalHaltingDuration="0.00" intervalHaltingDurationSum="0.00" startedHalts="0.00" meanVehicleNumber="1.09" maxVehicleNumber="4" />
   <interval begin="0.00" end="300.00" id="me2_5" sampledSeconds="1182.58" nVehEntered="36" nVehLeft="28" nVehSeen="36" meanSpeed="6.98" meanTimeLoss="16.51" meanOccupancy="5.38" maxOccupancy="13.65" meanMaxJamLengthInVehicles="1.68" meanMaxJamLengthInMeters="11.24" maxJamLengthInVehicles="6" maxJamLengthInMeters="43.31" jamLengthInVehiclesSum="504" jamLengthInMetersSum="3373.29" meanHaltingDuration="34.60" maxHaltingDuration="78.00" haltingDurationSum="519.00" meanIntervalHaltingDuration="34.60" maxIntervalHaltingDuration="78.00" intervalHaltingDurationSum="519.00" startedHalts="15.00" meanVehicleNumber="4.00" maxVehicleNumber="10" />
   <interval begin="0.00" end="300.00" id="me2_6" sampledSeconds="570.74" nVehEntered="27" nVehLeft="23" nVehSeen="27" meanSpeed="4.97" meanTimeLoss="13.86" meanOccupancy="2.59" maxOccupancy="9.56" meanMaxJamLengthInVehicles="1.07" meanMaxJamLengthInMeters="6.73" maxJamLengthInVehicles="5" maxJamLengthInMeters="35.01" jamLengthInVehiclesSum="322" jamLengthInMetersSum="2017.88" meanHaltingDuration="33.20" maxHaltingDuration="75.00" haltingDurationSum="332.00" meanIntervalHaltingDuration="33.20" maxIntervalHaltingDuration="75.00" intervalHaltingDurationSum="332.00" startedHalts="10.00" meanVehicleNumber="1.94" maxVehicleNumber="7" />
   <interval begin="0.00" end="300.00" id="me2_7" sampledSeconds="713.65" nVehEntered="17" nVehLeft="10" nVehSeen="17" meanSpeed="6.69" meanTimeLoss="21.42" meanOccupancy="3.23" maxOccupancy="9.56" meanMaxJamLengthInVehicles="1.03" meanMaxJamLengthInMeters="6.86" maxJamLengthInVehicles="4" maxJamLengthInMeters="27.56" jamLengthInVehiclesSum="310" jamLengthInMetersSum="2057.55" meanHaltingDuration="35.44" maxHaltingDuration="68.00" haltingDurationSum="319.00" meanIntervalHaltingDuration="35.44" maxIntervalHaltingDuration="68.00" intervalHaltingDurationSum="319.00" startedHalts="9.00" meanVehicleNumber="2.41" maxVehicleNumber="7" />
   <interval begin="0.00" end="300.00" id="me2_8" sampledSeconds="320.66" nVehEntered="21" nVehLeft="19" nVehSeen="21" meanSpeed="12.62" meanTimeLoss="1.11" meanOccupancy="1.44" maxOccupancy="5.46" meanMaxJamLengthInVehicles="0.00" meanMaxJamLengthInMeters="0.00" maxJamLengthInVehicles="0" maxJamLengthInMeters="0.00" jamLengthInVehiclesSum="0" jamLengthInMetersSum="0.00" meanHaltingDuration="0.00" maxHaltingDuration="0.00" haltingDurationSum="0.00" meanIntervalHaltingDuration="0.00" maxIntervalHaltingDuration="0.00" intervalHaltingDurationSum="0.00" startedHalts="0.00" meanVehicleNumber="1.11" maxVehicleNumber="4" />
   <interval begin="0.00" end="300.00" id="me2_9" sampledSeconds="1023.79" nVehEntered="30" nVehLeft="27" nVehSeen="30" meanSpeed="6.24" meanTimeLoss="18.71" meanOccupancy="4.63" maxOccupancy="12.29" meanMaxJamLengthInVehicles="1.62" meanMaxJamLengthInMeters="10.80" maxJamLengthInVehicles="6" maxJamLengthInMeters="42.57" jamLengthInVehiclesSum="486" jamLengthInMetersSum="3240.66" meanHaltingDuration="45.18" maxHaltingDuration="77.00" haltingDurationSum="497.00" meanIntervalHaltingDuration="45.18" maxIntervalHaltingDuration="77.00" intervalHaltingDurationSum="497.00" startedHalts="11.00" meanVehicleNumber="3.46" maxVehicleNumber="9" />
   <interval begin="0.00" end="300.00" id="me2_10" sampledSeconds="314.43" nVehEntered="24" nVehLeft="23" nVehSeen="24" meanSpeed="8.06" meanTimeLoss="6.08" meanOccupancy="1.42" maxOccupancy="5.46" meanMaxJamLengthInVehicles="0.38" meanMaxJamLengthInMeters="2.19" maxJamLengthInVehicles="2" maxJamLengthInMeters="13.33" jamLengthInVehiclesSum="115" jamLengthInMetersSum="658.37" meanHaltingDuration="29.75" maxHaltingDuration="45.00" haltingDurationSum="119.00" meanIntervalHaltingDuration="29.75" maxIntervalHaltingDuration="45.00" intervalHaltingDurationSum="119.00" startedHalts="4.00" meanVehicleNumber="1.09" maxVehicleNumber="4" />
   <interval begin="0.00" end="300.00" id="me2_11" sampledSeconds="661.66" nVehEntered="14" nVehLeft="10" nVehSeen="14" meanSpeed="5.98" meanTimeLoss="26.29" meanOccupancy="2.98" maxOccupancy="9.56" meanMaxJamLengthInVehicles="0.99" meanMaxJamLengthInMeters="6.53" maxJamLengthInVehicles="6" maxJamLengthInMeters="42.59" jamLengthInVehiclesSum="296" jamLengthInMetersSum="1960.46" meanHaltingDuration="27.91" maxHaltingDuration="69.00" haltingDurationSum="307.00" meanIntervalHaltingDuration="27.91" maxIntervalHaltingDuration="69.00" intervalHaltingDurationSum="307.00" startedHalts="11.00" meanVehicleNumber="2.24" maxVehicleNumber="7" />
   <interval begin="0.00" end="300.00" id="me2_12" sampledSeconds="275.20" nVehEntered="18" nVehLeft="16" nVehSeen="18" meanSpeed="11.99" meanTimeLoss="1.65" meanOccupancy="1.22" maxOccupancy="4.09" meanMaxJamLengthInVehicles="0.00" meanMaxJamLengthInMeters="0.00" maxJamLengthInVehicles="0" maxJamLengthInMeters="0.00" jamLengthInVehiclesSum="0" jamLengthInMetersSum="0.00" meanHaltingDuration="0.00" maxHaltingDuration="0.00" haltingDurationSum="0.00" meanIntervalHaltingDuration="0.00" maxIntervalHaltingDuration="0.00" intervalHaltingDurationSum="0.00" startedHalts="0.00" meanVehicleNumber="0.95" maxVehicleNumber="3" />
   <interval begin="0.00" end="300.00" id="me2_13" sampledSeconds="957.69" nVehEntered="26" nVehLeft="19" nVehSeen="26" meanSpeed="6.97" meanTimeLoss="18.01" meanOccupancy="4.35" maxOccupancy="10.92" meanMaxJamLengthInVehicles="1.34" meanMaxJamLengthInMeters="8.78" maxJamLengthInVehicles="5" maxJamLengthInMeters="35.01" jamLengthInVehiclesSum="403" jamLengthInMetersSum="2634.51" meanHaltingDuration="37.64" maxHaltingDuration="77.00" haltingDurationSum="414.00" meanIntervalHaltingDuration="37.64" maxIntervalHaltingDuration="77.00" intervalHaltingDurationSum="414.00" startedHalts="11.00" meanVehicleNumber="3.24" maxVehicleNumber="8" />
   <interval begin="0.00" end="300.00" id="me2_14" sampledSeconds="221.24" nVehEntered="15" nVehLeft="13" nVehSeen="15" meanSpeed="6.81" meanTimeLoss="7.49" meanOccupancy="1.00" maxOccupancy="5.46" meanMaxJamLengthInVehicles="0.28" meanMaxJamLengthInMeters="1.71" maxJamLengthInVehicles="3" maxJamLengthInMeters="20.12" jamLengthInVehiclesSum="84" jamLengthInMetersSum="512.94" meanHaltingDuration="17.80" maxHaltingDuration="34.00" haltingDurationSum="89.00" meanIntervalHaltingDuration="17.80" maxIntervalHaltingDuration="34.00" intervalHaltingDurationSum="89.00" startedHalts="5.00" meanVehicleNumber="0.77" maxVehicleNumber="4" />
   <interval begin="0.00" end="300.00" id="me2_15" sampledSeconds="738.15" nVehEntered="15" nVehLeft="8" nVehSeen="15" meanSpeed="6.67" meanTimeLoss="25.54" meanOccupancy="3.33" maxOccupancy="9.55" meanMaxJamLengthInVehicles="1.08" meanMaxJamLengthInMeters="7.08" maxJamLengthInVehicles="5" maxJamLengthInMeters="35.05" jamLengthInVehiclesSum="324" jamLengthInMetersSum="2125.33" meanHaltingDuration="30.45" maxHaltingDuration="60.00" haltingDurationSum="335.00" meanIntervalHaltingDuration="30.45" maxIntervalHaltingDuration="60.00" intervalHaltingDurationSum="335.00" startedHalts="11.00" meanVehicleNumber="2.49" maxVehicleNumber="7" />
   <interval begin="300.00" end="600.00" id="me2_0" sampledSeconds="415.06" nVehEntered="16" nVehLeft="16" nVehSeen="18" meanSpeed="11.68" meanTimeLoss="2.13" meanOccupancy="1.85" maxOccupancy="4.10" meanMaxJamLengthInVehicles="0.00" meanMaxJamLengthInMeters="0.00" maxJamLengthInVehicles="0" maxJamLengthInMeters="0.00" jamLengthInVehiclesSum="0" jamLengthInMetersSum="0.00" meanHaltingDuration="0.00" maxHaltingDuration="0.00" haltingDurationSum="0.00" meanIntervalHaltingDuration="0.00" maxIntervalHaltingDuration="0.00" intervalHaltingDurationSum="0.00" startedHalts="0.00" meanVehicleNumber="1.42" maxVehicleNumber="3" />
   <interval begin="300.00" end="600.00" id="me2_1" sampledSeconds="1592.74" nVehEntered="30" nVehLeft="34" nVehSeen="34" meanSpeed="5.65" meanTimeLoss="27.46" meanOccupancy="7.21" maxOccupancy="10.92" meanMaxJamLengthInVehicles="2.76" meanMaxJamLengthInMeters="18.78" maxJamLengthInVehicles="5" maxJamLengthInMeters="35.03" jamLengthInVehiclesSum="827" jamLengthInMetersSum="5633.87" meanHaltingDuration="56.13" maxHaltingDuration="74.00" haltingDurationSum="842.00" meanIntervalHaltingDuration="56.13" maxIntervalHaltingDuration="74.00" intervalHaltingDurationSum="842.00" startedHalts="15.00" meanVehicleNumber="5.38" maxVehicleNumber="8" />
   <interval begin="300.00" end="600.00" id="me2_2" sampledSeconds="398.64" nVehEntered="22" nVehLeft="23" nVehSeen="23" meanSpeed="5.22" meanTimeLoss="11.03" meanOccupancy="1.79" maxOccupancy="5.46" meanMaxJamLengthInVehicles="0.69" meanMaxJamLengthInMeters="4.16" maxJamLengthInVehicles="4" maxJamLengthInMeters="27.56" jamLengthInVehiclesSum="208" jamLengthInMetersSum="1247.89" meanHaltingDuration="24.11" maxHaltingDuration="48.00" haltingDurationSum="217.00" meanIntervalHaltingDuration="24.11" maxIntervalHaltingDuration="48.00" intervalHaltingDurationSum="217.00" startedHalts="9.00" meanVehicleNumber="1.37" maxVehicleNumber="4" />
   <interval begin="300.00" end="600.00" id="me2_3" sampledSeconds="810.60" nVehEntered="12" nVehLeft="13" nVehSeen="15" meanSpeed="5.87" meanTimeLoss="30.73" meanOccupancy="3.65" maxOccupancy="6.83" meanMaxJamLengthInVehicles="1.34" meanMaxJamLengthInMeters="8.50" maxJamLengthInVehicles="4" maxJamLengthInMeters="27.50" jamLengthInVehiclesSum="402" jamLengthInMetersSum="2550.86" meanHaltingDuration="36.42" maxHaltingDuration="74.00" haltingDurationSum="437.00" meanIntervalHaltingDuration="34.42" maxIntervalHaltingDuration="67.00" intervalHaltingDurationSum="413.00" startedHalts="11.00" meanVehicleNumber="2.73" maxVehicleNumber="5" />
   <interval begin="300.00" end="600.00" id="me2_4" sampledSeconds="492.96" nVehEntered="25" nVehLeft="24" nVehSeen="26" meanSpeed="12.77" meanTimeLoss="1.29" meanOccupancy="2.20" maxOccupancy="5.46" meanMaxJamLengthInVehicles="0.00" meanMaxJamLengthInMeters="0.00" maxJamLengthInVehicles="0" maxJamLengthInMeters="0.00" jamLengthInVehiclesSum="0" jamLengthInMetersSum="0.00" meanHaltingDuration="0.00" maxHaltingDuration="0.00" haltingDurationSum="0.00" meanIntervalHaltingDuration="0.00" maxIntervalHaltingDuration="0.00" intervalHaltingDurationSum="0.00" startedHalts="0.00" meanVehicleNumber="1.69" maxVehicleNumber="4" />
   <interval begin="300.00" end="600.00" id="me2_5" sampledSeconds="1957.48" nVehEntered="43" nVehLeft="45" nVehSeen="51" meanSpeed="5.82" meanTimeLoss="22.16" meanOccupancy="8.87" maxOccupancy="13.65" meanMaxJamLengthInVehicles="3.28" meanMaxJamLengthInMeters="22.67" maxJamLengthInVehicles="6" maxJamLengthInMeters="42.57" jamLengthInVehiclesSum="983" jamLengthInMetersSum="6802.09" meanHaltingDuration="49.43" maxHaltingDuration="76.00" haltingDurationSum="1137.00" meanIntervalHaltingDuration="43.52" maxIntervalHaltingDuration="76.00" intervalHaltingDurationSum="1001.00" startedHalts="19.00" meanVehicleNumber="6.60" maxVehicleNumber="10" />
   <interval begin="300.00" end="600.00" id="me2_6" sampledSeconds="792.83" nVehEntered="41" nVehLeft="41" nVehSeen="45" meanSpeed="5.05" meanTimeLoss="11.22" meanOccupancy="3.57" maxOccupancy="9.56" meanMaxJamLengthInVehicles="1.32" meanMaxJamLengthInMeters="8.52" maxJamLengthInVehicles="6" maxJamLengthInMeters="42.54" jamLengthInVehiclesSum="395" jamLengthInMetersSum="2556.71" meanHaltingDuration="22.86" maxHaltingDuration="72.00" haltingDurationSum="503.00" meanIntervalHaltingDuration="18.82" maxIntervalHaltingDuration="48.00" intervalHaltingDurationSum="414.00" startedHalts="19.00" meanVehicleNumber="2.71" maxVehicleNumber="7" />
   <interval begin="300.00" end="600.00" id="me2_7" sampledSeconds="1330.43" nVehEntered="23" nVehLeft="23" nVehSeen="30" meanSpeed="5.59" meanTimeLoss="25.90" meanOccupancy="6.00" maxOccupancy="10.92" meanMaxJamLengthInVehicles="2.21" meanMaxJamLengthInMeters="14.70" maxJamLengthInVehicles="6" maxJamLengthInMeters="42.55" jamLengthInVehiclesSum="663" jamLengthInMetersSum="4408.86" meanHaltingDuration="37.56" maxHaltingDuration="75.00" haltingDurationSum="864.00" meanIntervalHaltingDuration="29.61" maxIntervalHaltingDuration="75.00" intervalHaltingDurationSum="681.00" startedHalts="18.00" meanVehicleNumber="4.48" maxVehicleNumber="8" />
   <interval begin="300.00" end="600.00" id="me2_8" sampledSeconds="516.45" nVehEntered="22" nVehLeft="23" nVehSeen="24" meanSpeed="11.79" meanTimeLoss="1.88" meanOccupancy="2.30" maxOccupancy="4.10" meanMaxJamLengthInVehicles="0.00" meanMaxJamLengthInMeters="0.00" maxJamLengthInVehicles="0" maxJamLengthInMeters="0.00" jamLengthInVehiclesSum="0" jamLengthInMetersSum="0.00" meanHaltingDuration="0.00" maxHaltingDuration="0.00" haltingDurationSum="0.00" meanIntervalHaltingDuration="0.00" maxIntervalHaltingDuration="0.00" intervalHaltingDurationSum="0.00" startedHalts="0.00" meanVehicleNumber="1.78" maxVehicleNumber="3" />
   <interval begin="300.00" end="600.00" id="me2_9" sampledSeconds="1828.08" nVehEntered="39" nVehLeft="42" nVehSeen="42" meanSpeed="5.94" meanTimeLoss="24.05" meanOccupancy="8.28" maxOccupancy="13.65" meanMaxJamLengthInVehicles="2.94" meanMaxJamLengthInMeters="20.16" maxJamLengthInVehicles="6" maxJamLengthInMeters="42.51" jamLengthInVehiclesSum="883" jamLengthInMetersSum="6046.64" meanHaltingDuration="50.05" maxHaltingDuration="76.00" haltingDurationSum="901.00" meanIntervalHaltingDuration="50.05" maxIntervalHaltingDuration="76.00" intervalHaltingDurationSum="901.00" startedHalts="18.00" meanVehicleNumber="6.17" maxVehicleNumber="10" />
   <interval begin="300.00" end="600.00" id="me2_10" sampledSeconds="733.99" nVehEntered="30" nVehLeft="31" nVehSeen="31" meanSpeed="4.22" meanTimeLoss="16.39" meanOccupancy="3.29" maxOccupancy="9.56" meanMaxJamLengthInVehicles="1.42" meanMaxJamLengthInMeters="9.09" maxJamLengthInVehicles="6" maxJamLengthInMeters="43.31" jamLengthInVehiclesSum="426" jamLengthInMetersSum="2726.86" meanHaltingDuration="27.62" maxHaltingDuration="76.00" haltingDurationSum="442.00" meanIntervalHaltingDuration="27.62" maxIntervalHaltingDuration="76.00" intervalHaltingDurationSum="442.00" startedHalts="16.00" meanVehicleNumber="2.50" maxVehicleNumber="7" />
   <interval begin="300.00" end="600.00" id="me2_11" sampledSeconds="1339.28" nVehEntered="18" nVehLeft="19" nVehSeen="22" meanSpeed="4.99" meanTimeLoss="38.19" meanOccupancy="6.04" maxOccupancy="12.29" meanMaxJamLengthInVehicles="2.45" meanMaxJamLengthInMeters="16.48" maxJamLengthInVehicles="6" maxJamLengthInMeters="43.41" jamLengthInVehiclesSum="736" jamLengthInMetersSum="4943.58" meanHaltingDuration="39.60" maxHaltingDuration="79.00" haltingDurationSum="792.00" meanIntervalHaltingDuration="37.70" maxIntervalHaltingDuration="79.00" intervalHaltingDurationSum="754.00" startedHalts="18.00" meanVehicleNumber="4.52" maxVehicleNumber="9" />
   <interval begin="300.00" end="600.00" id="me2_12" sampledSeconds="499.45" nVehEntered="21" nVehLeft="23" nVehSeen="23" meanSpeed="11.88" meanTimeLoss="1.43" meanOccupancy="2.22" maxOccupancy="5.46" meanMaxJamLengthInVehicles="0.00" meanMaxJamLengthInMeters="0.00" maxJamLengthInVehicles="0" maxJamLengthInMeters="0.00" jamLengthInVehiclesSum="0" jamLengthInMetersSum="0.00" meanHaltingDuration="0.00" maxHaltingDuration="0.00" haltingDurationSum="0.00" meanIntervalHaltingDuration="0.00" maxIntervalHaltingDuration="0.00" intervalHaltingDurationSum="0.00" startedHalts="0.00" meanVehicleNumber="1.73" maxVehicleNumber="4" />
   <interval begin="300.00" end="600.00" id="me2_13" sampledSeconds="1512.69" nVehEntered="31" nVehLeft="32" nVehSeen="38" meanSpeed="5.88" meanTimeLoss="22.52" meanOccupancy="6.84" maxOccupancy="12.28" meanMaxJamLengthInVehicles="2.51" meanMaxJamLengthInMeters="17.02" maxJamLengthInVehicles="5" maxJamLengthInMeters="35.05" jamLengthInVehiclesSum="753" jamLengthInMetersSum="5106.19" meanHaltingDuration="46.37" maxHaltingDuration="71.00" haltingDurationSum="881.00" meanIntervalHaltingDuration="40.42" maxIntervalHaltingDuration="71.00" intervalHaltingDurationSum="768.00" startedHalts="15.00" meanVehicleNumber="5.10" maxVehicleNumber="9" />
   <interval begin="300.00" end="600.00" id="me2_14" sampledSeconds="596.70" nVehEntered="31" nVehLeft="30" nVehSeen="33" meanSpeed="5.37" meanTimeLoss="11.33" meanOccupancy="2.69" maxOccupancy="8.19" meanMaxJamLengthInVehicles="1.02" meanMaxJamLengthInMeters="6.23" maxJamLengthInVehicles="3" maxJamLengthInMeters="20.06" jamLengthInVehiclesSum="307" jamLengthInMetersSum="1870.31" meanHaltingDuration="22.87" maxHaltingDuration="51.00" haltingDurationSum="343.00" meanIntervalHaltingDuration="21.33" maxIntervalHaltingDuration="51.00" intervalHaltingDurationSum="320.00" startedHalts="13.00" meanVehicleNumber="2.04" maxVehicleNumber="7" />
   <interval begin="300.00" end="600.00" id="me2_15" sampledSeconds="1259.84" nVehEntered="22" nVehLeft="23" nVehSeen="29" meanSpeed="5.89" meanTimeLoss="24.90" meanOccupancy="5.67" maxOccupancy="10.92" meanMaxJamLengthInVehicles="2.01" meanMaxJamLengthInMeters="13.38" maxJamLengthInVehicles="6" maxJamLengthInMeters="42.80" jamLengthInVehiclesSum="603" jamLengthInMetersSum="4015.18" meanHaltingDuration="33.96" maxHaltingDuration="75.00" haltingDurationSum="815.00" meanIntervalHaltingDuration="25.92" maxIntervalHaltingDuration="75.00" intervalHaltingDurationSum="622.00" startedHalts="19.00" meanVehicleNumber="4.25" maxVehicleNumber="8" />
   <interval begin="600.00" end="900.00" id="me2_0" sampledSeconds="314.12" nVehEntered="19" nVehLeft="20" nVehSeen="21" meanSpeed="11.69" meanTimeLoss="1.26" meanOccupancy="1.40" maxOccupancy="4.10" meanMaxJamLengthInVehicles="0.00" meanMaxJamLengthInMeters="0.00" maxJamLengthInVehicles="0" maxJamLengthInMeters="0.00" jamLengthInVehiclesSum="0" jamLengthInMetersSum="0.00" meanHaltingDuration="0.00" maxHaltingDuration="0.00" haltingDurationSum="0.00" meanIntervalHaltingDuration="0.00" maxIntervalHaltingDuration="0.00" intervalHaltingDurationSum="0.00" startedHalts="0.00" meanVehicleNumber="1.09" maxVehicleNumber="3" />
   <interval begin="600.00" end="900.00" id="me2_1" sampledSeconds="1275.51" nVehEntered="28" nVehLeft="25" nVehSeen="28" meanSpeed="5.74" meanTimeLoss="26.11" meanOccupancy="5.76" maxOccupancy="10.92" meanMaxJamLengthInVehicles="2.12" meanMaxJamLengthInMeters="14.25" maxJamLengthInVehicles="5" maxJamLengthInMeters="35.06" jamLengthInVehiclesSum="636" jamLengthInMetersSum="4275.74" meanHaltingDuration="43.40" maxHaltingDuration="71.00" haltingDurationSum="651.00" meanIntervalHaltingDuration="43.40" maxIntervalHaltingDuration="71.00" intervalHaltingDurationSum="651.00" startedHalts="15.00" meanVehicleNumber="4.31" maxVehicleNumber="8" />
   <interval begin="600.00" end="900.00" id="me2_2" sampledSeconds="112.70" nVehEntered="18" nVehLeft="18" nVehSeen="18" meanSpeed="10.99" meanTimeLoss="1.47" meanOccupancy="0.51" maxOccupancy="2.73" meanMaxJamLengthInVehicles="0.05" meanMaxJamLengthInMeters="0.23" maxJamLengthInVehicles="1" maxJamLengthInMeters="5.00" jamLengthInVehiclesSum="14" jamLengthInMetersSum="70.00" meanHaltingDuration="8.00" maxHaltingDuration="15.00" haltingDurationSum="16.00" meanIntervalHaltingDuration="8.00" maxIntervalHaltingDuration="15.00" intervalHaltingDurationSum="16.00" startedHalts="2.00" meanVehicleNumber="0.40" maxVehicleNumber="2" />
   <interval begin="600.00" end="900.00" id="me2_3" sampledSeconds="671.31" nVehEntered="14" nVehLeft="14" nVehSeen="16" meanSpeed="6.05" meanTimeLoss="23.13" meanOccupancy="3.01" maxOccupancy="6.83" meanMaxJamLengthInVehicles="1.06" meanMaxJamLengthInMeters="6.75" maxJamLengthInVehicles="4" maxJamLengthInMeters="27.72" jamLengthInVehiclesSum="319" jamLengthInMetersSum="2025.34" meanHaltingDuration="38.44" maxHaltingDuration="71.00" haltingDurationSum="346.00" meanIntervalHaltingDuration="36.22" maxIntervalHaltingDuration="71.00" intervalHaltingDurationSum="326.00" startedHalts="7.00" meanVehicleNumber="2.26" maxVehicleNumber="5" />
   <interval begin="600.00" end="900.00" id="me2_4" sampledSeconds="553.24" nVehEntered="25" nVehLeft="26" nVehSeen="27" meanSpeed="12.22" meanTimeLoss="1.47" meanOccupancy="2.46" maxOccupancy="5.46" meanMaxJamLengthInVehicles="0.00" meanMaxJamLengthInMeters="0.00" maxJamLengthInVehicles="0" maxJamLengthInMeters="0.00" jamLengthInVehiclesSum="0" jamLengthInMetersSum="0.00" meanHaltingDuration="0.00" maxHaltingDuration="0.00" haltingDurationSum="0.00" meanIntervalHaltingDuration="0.00" maxIntervalHaltingDuration="0.00" intervalHaltingDurationSum="0.00" startedHalts="0.00" meanVehicleNumber="1.91" maxVehicleNumber="4" />
   <interval begin="600.00" end="900.00" id="me2_5" sampledSeconds="1902.91" nVehEntered="47" nVehLeft="44" nVehSeen="53" meanSpeed="6.04" meanTimeLoss="19.97" meanOccupancy="8.62" maxOccupancy="13.65" meanMaxJamLengthInVehicles="3.07" meanMaxJamLengthInMeters="21.08" maxJamLengthInVehicles="6" maxJamLengthInMeters="43.31" jamLengthInVehiclesSum="920" jamLengthInMetersSum="6323.72" meanHaltingDuration="46.88" maxHaltingDuration="78.00" haltingDurationSum="1125.00" meanIntervalHaltingDuration="39.12" maxIntervalHaltingDuration="78.00" intervalHaltingDurationSum="939.00" startedHalts="19.00" meanVehicleNumber="6.43" maxVehicleNumber="10" />
   <interval begin="600.00" end="900.00" id="me2_6" sampledSeconds="755.41" nVehEntered="37" nVehLeft="39" nVehSeen="41" meanSpeed="5.09" meanTimeLoss="11.89" meanOccupancy="3.40" maxOccupancy="8.19" meanMaxJamLengthInVehicles="1.32" meanMaxJamLengthInMeters="8.52" maxJamLengthInVehicles="5" maxJamLengthInMeters="35.01" jamLengthInVehiclesSum="397" jamLengthInMetersSum="2556.73" meanHaltingDuration="26.50" maxHaltingDuration="73.00" haltingDurationSum="477.00" meanIntervalHaltingDuration="22.83" maxIntervalHaltingDuration="53.00" intervalHaltingDurationSum="411.00" startedHalts="14.00" meanVehicleNumber="2.58" maxVehicleNumber="6" />
   <interval begin="600.00" end="900.00" id="me2_7" sampledSeconds="1340.26" nVehEntered="23" nVehLeft="23" nVehSeen="30" meanSpeed="5.89" meanTimeLoss="24.95" meanOccupancy="6.04" maxOccupancy="12.29" meanMaxJamLengthInVehicles="2.10" meanMaxJamLengthInMeters="14.17" maxJamLengthInVehicles="6" maxJamLengthInMeters="42.53" jamLengthInVehiclesSum="631" jamLengthInMetersSum="4250.39" meanHaltingDuration="41.28" maxHaltingDuration="75.00" haltingDurationSum="867.00" meanIntervalHaltingDuration="30.76" maxIntervalHaltingDuration="71.00" intervalHaltingDurationSum="646.00" startedHalts="15.00" meanVehicleNumber="4.52" maxVehicleNumber="9" />
   <interval begin="600.00" end="900.00" id="me2_8" sampledSeconds="477.92" nVehEntered="25" nVehLeft="23" nVehSeen="26" meanSpeed="12.44" meanTimeLoss="1.20" meanOccupancy="2.13" maxOccupancy="4.10" meanMaxJamLengthInVehicles="0.00" meanMaxJamLengthInMeters="0.00" maxJamLengthInVehicles="0" maxJamLengthInMeters="0.00" jamLengthInVehiclesSum="0" jamLengthInMetersSum="0.00" meanHaltingDuration="0.00" maxHaltingDuration="0.00" haltingDurationSum="0.00" meanIntervalHaltingDuration="0.00" maxIntervalHaltingDuration="0.00" intervalHaltingDurationSum="0.00" startedHalts="0.00" meanVehicleNumber="1.64" maxVehicleNumber="3" />
   <interval begin="600.00" end="900.00" id="me2_9" sampledSeconds="1607.09" nVehEntered="44" nVehLeft="41" nVehSeen="44" meanSpeed="6.68" meanTimeLoss="18.42" meanOccupancy="7.27" maxOccupancy="13.65" meanMaxJamLengthInVehicles="2.27" meanMaxJamLengthInMeters="15.39" maxJamLengthInVehicles="6" maxJamLengthInMeters="42.51" jamLengthInVehiclesSum="682" jamLengthInMetersSum="4615.72" meanHaltingDuration="38.89" maxHaltingDuration="76.00" haltingDurationSum="700.00" meanIntervalHaltingDuration="38.89" maxIntervalHaltingDuration="76.00" intervalHaltingDurationSum="700.00" startedHalts="18.00" meanVehicleNumber="5.44" maxVehicleNumber="10" />
   <interval begin="600.00" end="900.00" id="me2_10" sampledSeconds="534.10" nVehEntered="40" nVehLeft="39" nVehSeen="40" meanSpeed="6.70" meanTimeLoss="6.97" meanOccupancy="2.40" maxOccupancy="6.83" meanMaxJamLengthInVehicles="0.73" meanMaxJamLengthInMeters="4.52" maxJamLengthInVehicles="5" maxJamLengthInMeters="35.03" jamLengthInVehiclesSum="219" jamLengthInMetersSum="1355.42" meanHaltingDuration="22.90" maxHaltingDuration="53.00" haltingDurationSum="229.00" meanIntervalHaltingDuration="22.90" maxIntervalHaltingDuration="53.00" intervalHaltingDurationSum="229.00" startedHalts="10.00" meanVehicleNumber="1.84" maxVehicleNumber="5" />
   <interval begin="600.00" end="900.00" id="me2_11" sampledSeconds="1393.71" nVehEntered="22" nVehLeft="22" nVehSeen="25" meanSpeed="4.68" meanTimeLoss="35.94" meanOccupancy="6.29" maxOccupancy="10.92" meanMaxJamLengthInVehicles="2.64" meanMaxJamLengthInMeters="17.90" maxJamLengthInVehicles="6" maxJamLengthInMeters="42.64" jamLengthInVehiclesSum="793" jamLengthInMetersSum="5371.41" meanHaltingDuration="42.30" maxHaltingDuration="77.00" haltingDurationSum="846.00" meanIntervalHaltingDuration="40.50" maxIntervalHaltingDuration="77.00" intervalHaltingDurationSum="810.00" startedHalts="17.00" meanVehicleNumber="4.70" maxVehicleNumber="8" />
   <interval begin="600.00" end="900.00" id="me2_12" sampledSeconds="496.29" nVehEntered="26" nVehLeft="24" nVehSeen="26" meanSpeed="12.70" meanTimeLoss="1.49" meanOccupancy="2.22" maxOccupancy="6.82" meanMaxJamLengthInVehicles="0.00" meanMaxJamLengthInMeters="0.00" maxJamLengthInVehicles="0" maxJamLengthInMeters="0.00" jamLengthInVehiclesSum="0" jamLengthInMetersSum="0.00" meanHaltingDuration="0.00" maxHaltingDuration="0.00" haltingDurationSum="0.00" meanIntervalHaltingDuration="0.00" maxIntervalHaltingDuration="0.00" intervalHaltingDurationSum="0.00" startedHalts="0.00" meanVehicleNumber="1.71" maxVehicleNumber="5" />